# vtk DataFile Version 3.0
vtk output
ASCII
DATASET RECTILINEAR_GRID
FIELD FieldData 6
group_id 1 1 int
0 
base_index 1 3 int
0 0 0 
avtOriginalBounds 1 6 double
-10 10 -10 10 -10 10 
MeshName 1 1 string
Mesh

CYCLE 1 1 int
0 
TIME 1 1 double
0 
DIMENSIONS 50 50 50
X_COORDINATES 50 float
-10 -9.59184 -9.18367 -8.77551 -8.36735 -7.95918 -7.55102 -7.14286 -6.73469 
-6.32653 -5.91837 -5.5102 -5.10204 -4.69388 -4.28571 -3.87755 -3.46939 -3.06122 
-2.65306 -2.2449 -1.83673 -1.42857 -1.02041 -0.612245 -0.204082 0.204082 0.612245 
1.02041 1.42857 1.83674 2.2449 2.65306 3.06122 3.46939 3.87755 4.28571 
4.69388 5.10204 5.5102 5.91837 6.32653 6.73469 7.14286 7.55102 7.95918 
8.36735 8.77551 9.18367 9.59184 10 
Y_COORDINATES 50 float
-10 -9.59184 -9.18367 -8.77551 -8.36735 -7.95918 -7.55102 -7.14286 -6.73469 
-6.32653 -5.91837 -5.5102 -5.10204 -4.69388 -4.28571 -3.87755 -3.46939 -3.06122 
-2.65306 -2.2449 -1.83673 -1.42857 -1.02041 -0.612245 -0.204082 0.204082 0.612245 
1.02041 1.42857 1.83674 2.2449 2.65306 3.06122 3.46939 3.87755 4.28571 
4.69388 5.10204 5.5102 5.91837 6.32653 6.73469 7.14286 7.55102 7.95918 
8.36735 8.77551 9.18367 9.59184 10 
Z_COORDINATES 50 float
-10 -9.59184 -9.18367 -8.77551 -8.36735 -7.95918 -7.55102 -7.14286 -6.73469 
-6.32653 -5.91837 -5.5102 -5.10204 -4.69388 -4.28571 -3.87755 -3.46939 -3.06122 
-2.65306 -2.2449 -1.83673 -1.42857 -1.02041 -0.612245 -0.204082 0.204082 0.612245 
1.02041 1.42857 1.83674 2.2449 2.65306 3.06122 3.46939 3.87755 4.28571 
4.69388 5.10204 5.5102 5.91837 6.32653 6.73469 7.14286 7.55102 7.95918 
8.36735 8.77551 9.18367 9.59184 10 
POINT_DATA 125000
VECTORS grad float
0.016422 0.036377 0.0279858 0.0155209 0.0376015 0.0283298 0.0135539 0.0388246 0.0284662 
0.0112344 0.0400684 0.0282774 0.008564 0.041373 0.0275443 0.00576723 0.0428064 0.025872 
0.00368929 0.0444484 0.0226641 0.00414753 0.0462883 0.0176337 0.00869405 0.0479741 0.0128324 
0.0155122 0.0488811 0.0131299 0.0201019 0.0489812 0.0187237 0.020427 0.0488808 0.0247471 
0.0179304 0.0489376 0.028949 0.0144562 0.0491488 0.0315351 0.0108876 0.0494006 0.0330696 
0.00747502 0.0495832 0.0339081 0.00424981 0.0496073 0.0342181 0.00120914 0.0494046 0.034065 
-0.00162697 0.0489264 0.0334713 -0.00420725 0.048147 0.0324543 -0.00645769 0.0470669 0.0310485 
-0.00829601 0.0457134 0.0293176 -0.00964844 0.0441389 0.0273569 -0.0104634 0.0424159 0.0252893 
-0.0107217 0.0406294 0.0232558 -0.0104427 0.0388682 0.0214002 -0.00968409 0.0372181 0.0198557 
-0.0085361 0.035754 0.0187299 -0.00711274 0.0345354 0.0180938 -0.00553966 0.0336041 0.0179763 
-0.00394154 0.0329828 0.0183632 -0.00243104 0.0326774 0.019206 -0.00110161 0.0326788 0.0204303 
-2.36034e-05 0.032968 0.0219512 0.000754595 0.0335152 0.0236812 0.00120234 0.0342863 0.0255413 
0.00130129 0.0352404 0.0274637 0.0010401 0.0363309 0.0293934 0.000411153 0.0375025 0.0312834 
-0.000591397 0.0386894 0.0330892 -0.00196695 0.0398133 0.0347643 -0.00370157 0.0407858 0.0362539 
-0.00576091 0.0415125 0.0374947 -0.00808311 0.0419078 0.0384226 -0.0105777 0.041908 0.0389814 
-0.0131335 0.0414855 0.0391366 -0.0156335 0.0406539 0.0388837 -0.0179706 0.0394661 0.0382502 
-0.0200617 0.0380008 0.0372891 -0.0210373 0.0363464 0.0360687 0.0176466 0.0370067 0.0294759 
0.0167447 0.0383413 0.0298958 0.0147873 0.0397086 0.0301132 0.0125086 0.0411528 0.030021 
0.00993299 0.0427502 0.0294251 0.00730491 0.0446175 0.0279894 0.00543022 0.0468767 0.0252473 
0.0059104 0.0494622 0.0210862 0.00999045 0.0517365 0.017323 0.0160158 0.0526812 0.0177653 
0.0201018 0.0522554 0.0225639 0.0204052 0.0514545 0.02793 0.0180644 0.0509359 0.0318913 
0.0146877 0.0507601 0.0344799 0.0111048 0.0507741 0.0361176 0.00757837 0.0508155 0.0370829 
0.00416052 0.0507562 0.0374992 0.000868678 0.050501 0.0373986 -0.0022558 0.0499839 0.0367789 
-0.00513697 0.0491678 0.035641 -0.00767446 0.0480465 0.034014 -0.00976002 0.0466444 0.0319686 
-0.0112972 0.0450134 0.0296178 -0.0122181 0.0432274 0.0271122 -0.0124955 0.0413733 0.0246243 
-0.0121484 0.0395421 0.0223322 -0.0112412 0.0378213 0.0203991 -0.00987744 0.0362875 0.0189581 
-0.00818765 0.0350018 0.0180974 -0.00631595 0.034007 0.0178547 -0.0044049 0.0333278 0.0182176 
-0.00258303 0.032972 0.0191319 -0.000956297 0.0329324 0.0205138 0.000394583 0.0331912 0.0222657 
0.0014137 0.033721 0.0242894 0.00206494 0.0344883 0.0264959 0.00232363 0.0354534 0.0288086 
0.00217116 0.0365701 0.0311654 0.00159037 0.037782 0.0335109 0.000563979 0.0390205 0.0357888 
-0.000918746 0.040203 0.0379338 -0.00285196 0.0412323 0.0398633 -0.00519991 0.0420047 0.0414798 
-0.00788534 0.0424234 0.0426817 -0.0107888 0.0424163 0.0433817 -0.0137606 0.0419528 0.0435314 
-0.0166432 0.0410508 0.0431337 -0.0192971 0.0397723 0.0422421 -0.0216216 0.0382073 0.040946 
-0.0226917 0.0364556 0.0393529 0.0190911 0.0382524 0.0310907 0.0182228 0.0397892 0.0316103 
0.0163654 0.0414103 0.0319474 0.014276 0.0431885 0.0320222 0.0120287 0.04524 0.0317037 
0.00989366 0.0477222 0.0307968 0.00853395 0.0507567 0.0291057 0.00900733 0.0541521 0.0267835 
0.0119131 0.0569845 0.0250142 0.0160311 0.0579762 0.0256395 0.0188752 0.0570813 0.0287321 
0.0191075 0.0555496 0.0324783 0.017236 0.0543337 0.035624 0.0142944 0.0536301 0.0379498 
0.0109429 0.05329 0.0395894 0.00745714 0.053108 0.0406597 0.00393534 0.0529104 0.0411937 
0.000436783 0.0525658 0.0411685 -0.00296021 0.0519813 0.0405426 -0.00614464 0.0511017 0.0392931 
-0.00898099 0.0499095 0.0374391 -0.0113291 0.048424 0.0350578 -0.0130655 0.0466964 0.0322838 
-0.0141035 0.0448023 0.0292981 -0.014407 0.0428314 0.0263104 -0.0139947 0.0408781 0.0235353 
-0.0129386 0.0390313 0.0211692 -0.0113556 0.0373696 0.0193715 -0.00939333 0.0359559 0.0182493 
-0.00721359 0.0348356 0.0178504 -0.00497651 0.0340363 0.0181646 -0.00282645 0.0335699 0.0191331 
-0.000882387 0.0334334 0.0206642 0.000764966 0.0336128 0.02265 0.00205171 0.0340852 0.0249825 
0.00293481 0.0348197 0.0275636 0.00338304 0.0357794 0.0303104 0.00336862 0.0369189 0.033154 
0.00286162 0.0381817 0.0360315 0.00182962 0.0394955 0.0388741 0.000244856 0.0407689 0.0415928 
-0.00189984 0.0418904 0.0440693 -0.00456989 0.0427368 0.0461557 -0.00767148 0.0431894 0.0476947 
-0.0110482 0.0431595 0.0485547 -0.0144991 0.0426103 0.048666 -0.017814 0.0415679 0.0480449 
-0.0208141 0.0401137 0.046787 -0.0233784 0.0383615 0.0450387 -0.0245407 0.0364326 0.0429606 
0.0207202 0.0394596 0.0328417 0.0199027 0.0411583 0.033479 0.0181866 0.0429569 0.0339596 
0.0163383 0.0449282 0.0342348 0.0144668 0.0471748 0.0342383 0.0128216 0.0498087 0.0338967 
0.0118601 0.052857 0.0331948 0.0121382 0.0560422 0.0323439 0.0138146 0.0585798 0.0319548 
0.0161126 0.0595728 0.032743 0.0176752 0.0589929 0.0347412 0.0176575 0.0577149 0.037267 
0.0161449 0.0565391 0.0396867 0.013644 0.055746 0.0417421 0.0105827 0.0552841 0.0433767 
0.00719881 0.0549955 0.0445628 0.00361836 0.0547172 0.0452409 -6.04391e-05 0.0543132 0.045321 
-0.00371993 0.0536814 0.0447154 -0.00720882 0.0527577 0.0433695 -0.0103521 0.0515187 0.0412903 
-0.0129731 0.04998 0.0385618 -0.0149189 0.0481924 0.0353422 -0.0160831 0.0462313 0.0318482 
-0.0164198 0.0441867 0.0283289 -0.0159485 0.0421523 0.025038 -0.0147496 0.040216 0.0222065 
-0.0129528 0.0384545 0.0200202 -0.0107217 0.0369304 0.0186048 -0.00823557 0.0356903 0.018018 
-0.00567055 0.0347646 0.018254 -0.00318587 0.0341692 0.0192511 -0.000913382 0.0339065 0.0209131 
0.0010463 0.0339673 0.0231235 0.00262058 0.0343336 0.0257668 0.00375915 0.0349791 0.028738 
0.00442278 0.0358697 0.0319493 0.00457346 0.0369627 0.035327 0.00416696 0.0382036 0.0388026 
0.00315118 0.0395195 0.0422947 0.00147617 0.0408144 0.0456891 -0.000884056 0.0419672 0.0488212 
-0.00390089 0.0428382 0.051477 -0.00746262 0.0432898 0.0534225 -0.0113679 0.0432173 0.0544593 
-0.0153521 0.0425787 0.0544906 -0.0191398 0.0414084 0.0535541 -0.0225035 0.0398068 0.0518086 
-0.0253026 0.0379103 0.0494804 -0.0265496 0.0358578 0.046803 0.0224886 0.040617 0.0347445 
0.0217202 0.0424346 0.0355115 0.0201353 0.0443349 0.0361438 0.0184939 0.0463712 0.0366173 
0.0169092 0.0486075 0.036911 0.0155759 0.0510883 0.03702 0.0147674 0.0537643 0.036994 
0.0147301 0.0563732 0.0369956 0.0154437 0.0584044 0.037318 0.0164442 0.0593703 0.0382388 
0.0170174 0.0592585 0.0397837 0.0166537 0.0585462 0.0417123 0.015267 0.0577487 0.0437338 
0.0130395 0.0571259 0.0456498 0.0101925 0.0567048 0.0473344 0.00689018 0.0563973 0.0486715 
0.00325298 0.0560811 0.0495248 -0.000599027 0.0556377 0.049742 -0.00451565 0.0549718 0.0491838 
-0.00830734 0.0540202 0.0477617 -0.0117587 0.0527582 0.0454674 -0.0146554 0.0512006 0.0423927 
-0.0168142 0.0493962 0.0387223 -0.0181092 0.0474184 0.0347106 -0.018486 0.0453534 0.0306497 
-0.0179654 0.0432899 0.0268321 -0.0166364 0.0413103 0.0235214 -0.0146412 0.0394866 0.0209286 
-0.0121576 0.0378782 0.0191963 -0.00937939 0.0365307 0.0183935 -0.00649762 0.0354775 0.0185192 
-0.00368464 0.0347379 0.0195134 -0.00108433 0.0343207 0.0212767 0.00119209 0.034222 0.0236893 
0.00306356 0.0344288 0.0266297 0.00447094 0.0349191 0.0299878 0.00536668 0.0356624 0.0336726 
0.0057025 0.0366195 0.0376084 0.00541842 0.0377392 0.0417221 0.00444043 0.0389515 0.0459228 
0.00269246 0.0401623 0.0500698 0.000123978 0.041248 0.053947 -0.00324726 0.0420618 0.0572584 
-0.00729239 0.0424553 0.0596702 -0.0117593 0.0423137 0.0608964 -0.016308 0.041592 0.0608025 
-0.0205859 0.0403321 0.059458 -0.0243121 0.0386481 0.0571086 -0.0273274 0.0366906 0.0540872 
-0.0286458 0.0346073 0.0507162 0.0243554 0.0417283 0.0368218 0.0236206 0.0436307 0.0377262 
0.0221232 0.0455774 0.0385075 0.0206109 0.0475975 0.0391586 0.0191839 0.0497179 0.0396824 
0.0179784 0.0519377 0.0401027 0.017145 0.0541824 0.0404799 0.0167783 0.056259 0.0409279 
0.0168116 0.0578765 0.0415986 0.0169666 0.0587947 0.0426221 0.0168511 0.0590107 0.0440283 
0.0161477 0.0587628 0.0457363 0.0147246 0.0583434 0.0476124 0.0126001 0.0579408 0.0495172 
0.00985408 0.0576087 0.0513096 0.00657511 0.0573095 0.0528264 0.00285876 0.0569631 0.0538759 
-0.00116968 0.0564789 0.0542505 -0.00533748 0.0557775 0.0537605 -0.00942242 0.054805 0.0522816 
-0.0131717 0.0535401 0.0497906 -0.0163351 0.0519975 0.0463867 -0.0187012 0.0502232 0.0422826 
-0.0201259 0.0482844 0.0377719 -0.0205482 0.046259 0.0331879 -0.0199916 0.0442255 0.0288599 
-0.0185529 0.0422561 0.0250812 -0.016385 0.0404146 0.0220835 -0.0136776 0.0387542 0.0200248 
-0.0106362 0.0373189 0.018985 -0.00746334 0.0361427 0.0189698 -0.00434268 0.0352497 0.0199251 
-0.00142932 0.0346529 0.0217521 0.00115442 0.0343552 0.0243309 0.00331771 0.0343475 0.0275369 
0.00499272 0.0346115 0.0312567 0.00612319 0.03512 0.0353956 0.00665021 0.0358371 0.0398767 
0.00649893 0.0367153 0.0446246 0.00557435 0.0376915 0.0495412 0.00377262 0.0386792 0.0544622 
0.00101542 0.0395635 0.0591187 -0.00269353 0.040205 0.0631254 -0.00721073 0.0404599 0.0660312 
-0.0122312 0.0402156 0.067445 -0.0173337 0.0394297 0.0671866 -0.0220836 0.038147 0.0653667 
-0.026145 0.036484 0.0623393 -0.0293435 0.0345899 0.0585623 -0.0307162 0.0326062 0.0544581 
0.0262935 0.0428056 0.039108 0.0255693 0.044773 0.0401554 0.0241021 0.0467368 0.0410805 
0.0226344 0.0487062 0.041883 0.0212494 0.0506841 0.0425775 0.0200404 0.0526502 0.0431972 
0.0190887 0.0545385 0.0438006 0.0184242 0.0562249 0.0444727 0.0179794 0.0575532 0.045311 
0.0175785 0.0584079 0.0463986 0.0169854 0.0587898 0.0477746 0.0159863 0.0588162 0.0494208 
0.0144451 0.0586448 0.0512729 0.0123048 0.0583946 0.0532286 0.00956118 0.0581156 0.0551479 
0.00624454 0.0577973 0.0568428 0.00242233 0.0573932 0.0580812 -0.00178456 0.0568421 0.0586085 
-0.00618947 0.0560871 0.0581911 -0.0105448 0.0550886 0.0566695 -0.0145662 0.053833 0.0540068 
-0.0179722 0.0523353 0.0503101 -0.0205274 0.0506358 0.0458176 -0.0220734 0.0487914 0.0408599 
-0.022545 0.0468657 0.0358064 -0.0219684 0.044922 0.0310183 -0.0204473 0.0430183 0.0268114 
-0.0181431 0.041206 0.0234344 -0.0152532 0.0395304 0.0210576 -0.0119909 0.0380313 0.0197709 
-0.00856686 0.0367429 0.0195904 -0.0051744 0.0356923 0.0204697 -0.00197887 0.0348974 0.0223174 
0.000886679 0.0343653 0.0250154 0.00331986 0.0340912 0.0284383 0.00524342 0.0340596 0.032469 
0.00659227 0.0342453 0.0370088 0.00729775 0.0346144 0.0419765 0.00727284 0.0351243 0.0472951 
0.0064044 0.0357202 0.0528595 0.00456452 0.0363295 0.0584869 0.00164974 0.0368581 0.0638614 
-0.00235093 0.0371916 0.0685122 -0.00728178 0.0372125 0.0718734 -0.0127895 0.0368288 0.073446 
-0.0183766 0.0360079 0.073004 -0.0235316 0.0347912 0.0707033 -0.0278692 0.0332799 0.0670111 
-0.0312052 0.0315996 0.0625119 -0.032613 0.0298667 0.0577245 0.0282903 0.0438602 0.0416491 
0.0275519 0.0458869 0.0428483 0.0260564 0.04786 0.0439122 0.0245582 0.0497756 0.0448432 
0.0231279 0.0516257 0.0456598 0.0218328 0.0533876 0.0463986 0.0207198 0.055015 0.0471156 
0.019793 0.0564344 0.0478837 0.0189946 0.0575641 0.0487823 0.0182033 0.0583481 0.0498843 
0.0172594 0.0587863 0.0512366 0.0160027 0.0589353 0.0528517 0.014303 0.058877 0.0546978 
0.0120709 0.0586808 0.0566957 0.00925684 0.0583841 0.0587077 0.0058527 0.0579901 0.0605321 
0.00190353 0.0574785 0.0619097 -0.00247574 0.0568175 0.0625508 -0.00709093 0.0559762 0.0621846 
-0.0116765 0.0549344 0.0606246 -0.015925 0.0536891 0.0578208 -0.0195323 0.0522562 0.0538869 
-0.022245 0.0506669 0.049082 -0.023896 0.048963 0.0437651 -0.0244176 0.047189 0.0383339 
-0.023839 0.0453882 0.0331709 -0.0222689 0.0436 0.0286076 -0.0198729 0.0418612 0.0249031 
-0.0168523 0.0402064 0.0222363 -0.0134237 0.0386699 0.0207086 -0.00980234 0.0372841 0.0203471 
-0.00618815 0.0360779 0.0211189 -0.00275636 0.0350726 0.0229416 0.00034821 0.0342788 0.0257032 
0.00301206 0.0336946 0.0292785 0.00514674 0.0333071 0.033545 0.00667799 0.0330921 0.0383961 
0.00752926 0.0330179 0.0437431 0.00760472 0.033046 0.0495024 0.00677955 0.0331315 0.0555601 
0.00491047 0.033221 0.0617182 0.00187755 0.0332513 0.0676258 -0.00233912 0.0331509 0.0727494 
-0.0075736 0.0328493 0.0764351 -0.0134358 0.0322945 0.0781014 -0.0193713 0.0314721 0.0774884 
-0.0248116 0.0304124 0.0747917 -0.0293366 0.0291815 0.0705714 -0.0327567 0.0278589 0.0655117 
-0.0341821 0.0265162 0.0602033 0.0303469 0.0448952 0.0445075 0.0295691 0.0469853 0.0458715 
0.0279908 0.0489732 0.0470734 0.0264001 0.0508481 0.0481148 0.0248615 0.0525998 0.049015 
0.0234296 0.0542128 0.049813 0.0221355 0.05566 0.0505641 0.0209733 0.0569031 0.0513399 
0.0198931 0.0579001 0.052217 0.0188006 0.0586215 0.0532689 0.0175726 0.0590632 0.0545528 
0.016077 0.0592471 0.0560966 0.0141906 0.0592103 0.0578876 0.0118119 0.0589889 0.0598588 
0.00887048 0.0586079 0.0618773 0.00533903 0.0580797 0.0637352 0.00124979 0.0574065 0.0651577 
-0.00328696 0.0565866 0.0658338 -0.00807261 0.0556184 0.0654705 -0.0128318 0.0545056 0.0638621 
-0.0172443 0.0532583 0.0609508 -0.0209944 0.0518934 0.0568519 -0.0238206 0.0504317 0.0518382 
-0.0255513 0.048896 0.0462837 -0.0261197 0.0473077 0.0406001 -0.0255574 0.0456865 0.0351796 
-0.0239743 0.0440506 0.03036 -0.0215366 0.0424198 0.0264039 -0.0184444 0.0408162 0.0234971 
-0.0149132 0.0392667 0.0217502 -0.0111589 0.0378002 0.0212054 -0.00738597 0.036445 0.0218441 
-0.00377798 0.035224 0.0235984 -0.000491261 0.0341504 0.0263627 0.00234818 0.0332254 0.0300124 
0.00464094 0.0324377 0.0344174 0.00630307 0.0317657 0.0394592 0.00725162 0.0311803 0.0450356 
0.00738645 0.0306486 0.0510483 0.0065794 0.0301369 0.0573709 0.00468433 0.0296148 0.0637906 
0.00157964 0.0290563 0.0699377 -0.0027529 0.0284433 0.0752516 -0.00813818 0.0277666 0.0790448 
-0.0141667 0.0270261 0.0807071 -0.0202587 0.0262296 0.0799704 -0.0258222 0.0253915 0.0770535 
-0.0304228 0.024529 0.0725596 -0.0338705 0.0236595 0.0672174 -0.0352983 0.0227982 0.0616491 
0.0324705 0.0458971 0.0477612 0.0316299 0.0480599 0.0493102 0.0299193 0.0500737 0.0506544 
0.0281848 0.0519255 0.0517929 0.0264926 0.0536095 0.0527446 0.024893 0.0551218 0.0535505 
0.0234101 0.0564544 0.054271 0.0220331 0.0575931 0.05498 0.020713 0.0585178 0.055759 
0.0193664 0.0592091 0.0566871 0.017885 0.0596542 0.0578289 0.0161498 0.0598497 0.0592234 
0.0140448 0.0598005 0.060868 0.0114685 0.0595175 0.0627043 0.00834763 0.0590154 0.0646045 
0.00465131 0.0583137 0.0663617 0.000410438 0.0574365 0.0676987 -0.00426388 0.0564132 0.0682993 
-0.00917196 0.0552757 0.0678649 -0.0140367 0.054055 0.066184 -0.0185373 0.0527776 0.0631957 
-0.0223589 0.0514627 0.0590143 -0.0252424 0.0501206 0.0539117 -0.02702 0.0487537 0.0482616 
-0.0276271 0.0473586 0.0424738 -0.0270962 0.0459294 0.036936 -0.0255356 0.0444622 0.031981 
-0.0231073 0.0429577 0.0278695 -0.0200053 0.041425 0.0247908 -0.0164397 0.0398808 0.0228641 
-0.012624 0.0383486 0.0221467 -0.00876439 0.0368536 0.0226374 -0.00505102 0.0354184 0.0242825 
-0.00165033 0.0340577 0.0269859 0.00129938 0.032776 0.0306213 0.00368702 0.0315655 0.0350513 
0.00542057 0.0304093 0.0401418 0.00641215 0.0292842 0.0457706 0.0065614 0.0281655 0.0518188 
0.00574577 0.0270339 0.0581412 0.00382984 0.0258828 0.0645111 0.000706077 0.0247252 0.0705571 
-0.00362885 0.0235964 0.0757341 -0.00899088 0.0225481 0.079385 -0.0149728 0.0216308 0.0809367 
-0.0210059 0.0208738 0.0801454 -0.0265123 0.0202733 0.0772297 -0.0310686 0.0197964 0.072773 
-0.0344875 0.0193965 0.0674808 -0.0359046 0.0190314 0.0619583 0.0346725 0.046827 0.0515065 
0.0337458 0.0490727 0.0532691 0.0318564 0.0511228 0.0547667 0.0299358 0.0529665 0.0559916 
0.0280577 0.0546081 0.0569646 0.0262746 0.05606 0.0577309 0.0246068 0.0573349 0.0583582 
0.0230367 0.0584378 0.058929 0.0215091 0.0593621 0.0595329 0.019937 0.0600889 0.0602562 
0.0182133 0.0605911 0.0611703 0.0162233 0.0608392 0.0623202 0.0138583 0.060807 0.0637085 
0.0110267 0.0604802 0.0652831 0.00766671 0.0598624 0.0669212 0.0037601 0.0589784 0.0684245 
-0.000650764 0.057875 0.0695269 -0.00544775 0.0566145 0.0699239 -0.0104308 0.0552658 0.069329 
-0.0153298 0.0538914 0.0675397 -0.0198367 0.0525383 0.0644975 -0.0236515 0.0512309 0.0603111 
-0.0265296 0.0499709 0.0552397 -0.0283133 0.0487416 0.0496392 -0.028944 0.0475155 0.0438993 
-0.0284538 0.0462619 0.0383902 -0.0269461 0.0449542 0.0334296 -0.0245738 0.0435742 0.0292709 
-0.0215213 0.0421164 0.0261016 -0.0179896 0.040586 0.0240493 -0.0141861 0.0389981 0.0231838 
-0.0103161 0.0373731 0.0235207 -0.0065738 0.0357308 0.0250216 -0.00313365 0.0340871 0.0275986 
-0.000144005 0.0324497 0.0311265 0.00227427 0.0308179 0.035459 0.00402176 0.0291828 0.040446 
0.00500774 0.0275317 0.0459442 0.00513613 0.0258528 0.0518115 0.00429678 0.0241441 0.0578809 
0.0023756 0.0224229 0.063916 -0.000706792 0.0207366 0.0695605 -0.00493002 0.0191637 0.0743196 
-0.0101038 0.017802 0.0776212 -0.015841 0.0167388 0.0789807 -0.0216161 0.0160178 0.0782032 
-0.0268996 0.0156195 0.0754871 -0.0312996 0.0154709 0.0713451 -0.0346354 0.0154754 0.0664017 
-0.0360286 0.0155427 0.0612035 0.036962 0.0476118 0.0558574 0.0359257 0.0499458 0.057874 
0.033813 0.0520362 0.0595405 0.0316701 0.0538789 0.0608439 0.0295861 0.0554949 0.061806 
0.0276198 0.0569202 0.0624812 0.0257879 0.0581924 0.0629501 0.0240602 0.0593371 0.0633092 
0.022364 0.0603577 0.0636604 0.0205954 0.0612295 0.0640984 0.0186353 0.061903 0.0646992 
0.0163656 0.0623132 0.0655093 0.0136858 0.0623955 0.0665333 0.0105239 0.0621024 0.0677207 
0.00684583 0.0614206 0.0689566 0.00266397 0.0603781 0.0700567 -0.00195348 0.0590447 0.0707767 
-0.00687313 0.0575203 0.0708408 -0.0118951 0.0559151 0.0699914 -0.0167642 0.0543298 0.0680482 
-0.0211978 0.0528362 0.064961 -0.0249263 0.0514688 0.0608294 -0.0277318 0.0502247 0.0558896 
-0.0294753 0.0490714 0.0504649 -0.0301068 0.0479598 0.0449104 -0.0296575 0.046836 0.0395658 
-0.0282233 0.0456524 0.0347252 -0.0259451 0.0443729 0.0306282 -0.0229936 0.0429759 0.0274565 
-0.019558 0.0414548 0.0253415 -0.015837 0.0398142 0.024363 -0.0120317 0.0380669 0.0245497 
-0.00833702 0.0362291 0.0258763 -0.00493145 0.0343168 0.0282638 -0.00196981 0.0323423 0.0315886 
0.000420094 0.0303141 0.0356991 0.00213444 0.0282359 0.0404344 0.00308216 0.0261098 0.0456331 
0.00317371 0.0239418 0.0511329 0.00231588 0.0217485 0.0567503 0.000422359 0.0195701 0.0622456 
-0.00255311 0.0174788 0.067291 -0.00656343 0.0155797 0.0714638 -0.0114158 0.0139943 0.0743027 
-0.016757 0.0128268 0.0754344 -0.0221251 0.0121245 0.0747211 -0.0270592 0.0118576 0.0723314 
-0.0312127 0.0119307 0.068682 -0.0344156 0.0122176 0.0642855 -0.0357699 0.0125979 0.0596054 
0.0393405 0.0481324 0.0609422 0.0381701 0.050549 0.063266 0.0357895 0.0526707 0.0651243 
0.0333946 0.0545065 0.0664966 0.031099 0.0561023 0.0674098 0.028972 0.0575279 0.0679348 
0.0270238 0.0588558 0.0681734 0.025202 0.0601389 0.0682452 0.0234014 0.0613905 0.0682683 
0.0214823 0.0625741 0.0683477 0.019297 0.0636054 0.068562 0.0167158 0.0643673 0.0689554 
0.0136476 0.064737 0.0695264 0.0100518 0.0646179 0.0702238 0.00594234 0.0639676 0.0709383 
0.00138426 0.062814 0.0715053 -0.00350857 0.0612537 0.0717125 -0.00857735 0.0594318 0.0713253 
-0.0136213 0.057511 0.0701296 -0.0184088 0.0556387 0.0679779 -0.0226976 0.0539194 0.0648339 
-0.026263 0.0524035 0.0607882 -0.028927 0.0510868 0.0560458 -0.0305781 0.0499247 0.0508873 
-0.0311794 0.048849 0.0456231 -0.0307612 0.0477854 0.0405531 -0.0294092 0.0466671 0.0359409 
-0.0272503 0.0454415 0.0320048 -0.0244395 0.0440727 0.0289173 -0.0211513 0.0425415 0.0268061 
-0.0175741 0.0408415 0.0257561 -0.0139012 0.0389768 0.0258038 -0.0103239 0.0369585 0.0269325 
-0.00702047 0.0348022 0.0290716 -0.0041467 0.0325253 0.0321026 -0.00183213 0.0301468 0.0358748 
-0.000182509 0.027686 0.0402241 0.000713587 0.0251632 0.0449817 0.00077486 0.0226034 0.0499744 
-7.48634e-05 0.0200433 0.055011 -0.00189412 0.0175408 0.0598586 -0.0046972 0.0151821 0.064225 
-0.00841451 0.0130814 0.0677638 -0.0128567 0.011363 0.0701237 -0.0177108 0.0101285 0.0710363 
-0.0225853 0.00942016 0.070415 -0.0270934 0.00920331 0.0683982 -0.0309396 0.00937676 0.0653062 
-0.0339682 0.00980544 0.0615377 -0.0352681 0.0103575 0.0574658 0.0417953 0.0482092 0.0668941 
0.040464 0.0506839 0.0695937 0.0377705 0.0528084 0.071672 0.0351017 0.0546111 0.0730994 
0.0326074 0.0561754 0.0739152 0.0303733 0.0576203 0.0742185 0.028399 0.0590693 0.0741477 
0.026595 0.0606141 0.0738544 0.0247992 0.0622829 0.073483 0.0228103 0.0640204 0.0731506 
0.0204284 0.0656891 0.0729349 0.0174972 0.067091 0.0728683 0.0139364 0.0680116 0.0729361 
0.00975454 0.0682743 0.0730765 0.00504196 0.0677886 0.0731843 -4.99487e-05 0.0665787 0.0731161 
-0.00533569 0.0647782 0.0726998 -0.0106158 0.0625963 0.0717547 -0.0156882 0.0602684 0.0701206 
-0.0203557 0.0580044 0.0676932 -0.024433 0.0559525 0.0644555 -0.027759 0.0541834 0.0604889 
-0.0302105 0.052694 0.0559659 -0.0317131 0.0514269 0.05112 -0.0322461 0.0502957 0.0462105 
-0.0318394 0.049207 0.0414908 -0.0305672 0.048077 0.0371883 -0.0285394 0.0468395 0.0334954 
-0.0258936 0.0454477 0.0305676 -0.0227892 0.0438715 0.0285239 -0.0194017 0.0420949 0.0274458 
-0.0159147 0.0401136 0.02737 -0.0125116 0.0379323 0.028285 -0.0093646 0.0355653 0.0301263 
-0.00662518 0.0330348 0.0327849 -0.00441921 0.0303698 0.0361195 -0.00284922 0.0276043 0.0399733 
-0.00200045 0.0247774 0.044183 -0.00194621 0.0219327 0.0485785 -0.0027467 0.0191242 0.0529721 
-0.00443876 0.0164214 0.0571449 -0.00701249 0.0139152 0.0608428 -0.0103825 0.0117145 0.0637875 
-0.0143688 0.00993133 0.0657165 -0.0186999 0.00865293 0.0664451 -0.0230503 0.00791144 0.0659249 
-0.0271026 0.00767124 0.0642674 -0.0306106 0.00783658 0.0617115 -0.0334349 0.00827944 0.0585585 
-0.0346658 0.0088706 0.0550969 0.0442898 0.0475889 0.0738292 0.0427693 0.0500681 0.0769897 
0.0397167 0.0521371 0.07932 0.0367615 0.0538521 0.0807812 0.0341082 0.0553498 0.0814364 
0.031866 0.0568205 0.0814314 0.0300176 0.0584621 0.0809619 0.0284157 0.0604252 0.0802324 
0.0268077 0.0627627 0.079422 0.0248885 0.0653955 0.0786631 0.0223676 0.0681055 0.0780244 
0.0190383 0.0705676 0.0775146 0.0148308 0.072419 0.0770862 0.00982881 0.0733507 0.076653 
0.00424683 0.0731936 0.0761049 -0.00162613 0.0719658 0.0753207 -0.00749099 0.0698625 0.0741787 
-0.0130872 0.0671962 0.0725644 -0.0182133 0.0643123 0.0703864 -0.0227246 0.061511 0.0675926 
-0.0265186 0.0589973 0.0641913 -0.0295216 0.0568637 0.0602586 -0.0316834 0.0551033 0.0559342 
-0.0329764 0.0536397 0.0514026 -0.0333993 0.052362 0.046869 -0.03298 0.0511566 0.0425386 
-0.0317767 0.0499253 0.0385969 -0.0298796 0.0485938 0.0352056 -0.0274074 0.0471097 0.0324974 
-0.0245041 0.0454382 0.030575 -0.021332 0.0435568 0.0295088 -0.0180639 0.0414538 0.0293293 
-0.0148722 0.0391282 0.0300238 -0.0119179 0.0365908 0.031534 -0.00934219 0.0338658 0.0337625 
-0.00726259 0.0309894 0.0365856 -0.00577486 0.0280077 0.0398662 -0.00495803 0.024974 0.0434599 
-0.0048784 0.0219476 0.0472121 -0.00558615 0.0189945 0.0509493 -0.00710309 0.0161898 0.0544732 
-0.00940418 0.0136217 0.0575624 -0.0123984 0.0113868 0.0599914 -0.0159183 0.00957739 0.0615623 
-0.0197307 0.0082612 0.0621471 -0.023567 0.00745988 0.0617223 -0.0271683 0.00713885 0.0603759 
-0.0303314 0.00721371 0.0582869 -0.0329342 0.00757158 0.0556779 -0.0340858 0.00809526 0.0527697 
0.0467536 0.0459365 0.0818069 0.0450122 0.0483249 0.0855277 0.0415545 0.0502387 0.0881429 
0.0383143 0.0517718 0.0896041 0.0355759 0.0531336 0.0900159 0.0334857 0.0546137 0.0896006 
0.0320036 0.0565177 0.0886416 0.0308956 0.0590882 0.0874221 0.0297695 0.0624244 0.0861738 
0.0281531 0.0664215 0.0850434 0.0256006 0.0707457 0.0840802 0.0218108 0.0748734 0.0832407 
0.0167195 0.0781981 0.082413 0.010529 0.0801892 0.0814548 0.0036571 0.0805475 0.0802338 
-0.00338101 0.0792894 0.0786536 -0.0101053 0.0767251 0.0766592 -0.016166 0.0733439 0.0742276 
-0.0213734 0.0696683 0.071357 -0.0256708 0.0661309 0.0680635 -0.0290804 0.0630077 0.0643883 
-0.0316529 0.060407 0.0604038 -0.0334345 0.0582999 0.0562174 -0.0344545 0.0565705 0.0519629 
-0.0347291 0.0550697 0.0477912 -0.034276 0.053658 0.0438538 -0.03313 0.0522263 0.0402935 
-0.031355 0.0507017 0.0372367 -0.0290492 0.0490376 0.0347881 -0.0263422 0.0472035 0.0330281 
-0.023386 0.045177 0.0320086 -0.0203433 0.0429412 0.0317478 -0.0173746 0.0404887 0.0322275 
-0.014627 0.0378246 0.0333934 -0.0122266 0.0349703 0.0351632 -0.0102773 0.0319633 0.037436 
-0.00886464 0.028856 0.0401037 -0.00806057 0.0257099 0.0430508 -0.00792575 0.0225931 0.0461488 
-0.00850451 0.0195781 0.0492473 -0.00981152 0.0167413 0.0521703 -0.0118155 0.0141636 0.0547237 
-0.0144268 0.0119265 0.0567174 -0.0174943 0.010103 0.0579958 -0.0208174 0.00874209 0.0584657 
-0.0241727 0.00785637 0.0581157 -0.0273488 0.00741351 0.0570166 -0.0301778 0.00734246 0.0553026 
-0.0325533 0.00754786 0.0531406 -0.0336185 0.00792873 0.0506971 0.0490668 0.0428445 0.090765 
0.0470716 0.044991 0.0951521 0.0431635 0.0465957 0.0980783 0.0396564 0.0477995 0.0994899 
0.0369501 0.0489053 0.0995572 0.0352501 0.0503352 0.0986192 0.0344921 0.0525485 0.0970924 
0.0343224 0.055931 0.0953746 0.0341409 0.0606732 0.0937724 0.0332098 0.0666584 0.0924516 
0.0308195 0.0733976 0.0914183 0.0264907 0.0800608 0.0905299 0.0201466 0.0856401 0.0895441 
0.0121782 0.0892264 0.0882018 0.00334704 0.090302 0.0863142 -0.00544846 0.0889003 0.0838156 
-0.0134366 0.0855525 0.0807579 -0.020144 0.0810621 0.0772624 -0.0254263 0.0762396 0.0734601 
-0.0293852 0.071709 0.0694604 -0.0322424 0.067827 0.0653455 -0.0342294 0.0646927 0.0611835 
-0.03552 0.0622149 0.0570421 -0.0362066 0.0601977 0.0530002 -0.0363119 0.0584261 0.0491474 
-0.0358233 0.056724 0.0455799 -0.0347329 0.05498 0.0423946 -0.0330683 0.0531403 0.0396798 
-0.0309056 0.0511841 0.0375097 -0.0283647 0.0491003 0.035938 -0.0255944 0.0468743 0.0349936 
-0.0227522 0.0444871 0.0346777 -0.0199888 0.0419222 0.0349624 -0.0174364 0.0391742 0.0357964 
-0.0152035 0.0362556 0.0371113 -0.0133768 0.033198 0.0388331 -0.0120283 0.0300511 0.0408866 
-0.0112209 0.0268775 0.0431921 -0.0110102 0.023747 0.0456531 -0.011438 0.0207328 0.0481465 
-0.0125176 0.017909 0.0505183 -0.0142189 0.0153484 0.0525961 -0.016459 0.013119 0.0542147 
-0.0191027 0.0112771 0.0552421 -0.0219773 0.00985849 0.0556042 -0.0248955 0.00886834 0.0552948 
-0.0276822 0.00827813 0.0543699 -0.030197 0.00802898 0.0529332 -0.0323479 0.00804281 0.0511107 
-0.033324 0.00823474 0.0490298 0.0510466 0.0378762 0.100427 0.0487634 0.0395616 0.105574 
0.0443629 0.0406371 0.108823 0.0406239 0.0412959 0.110117 0.0381116 0.0419497 0.109728 
0.0371289 0.0431882 0.108162 0.0375994 0.0456828 0.106028 0.0390203 0.0500442 0.103889 
0.0404969 0.0566404 0.102163 0.0408775 0.0653976 0.101045 0.039003 0.0756429 0.100467 
0.0340532 0.0860881 0.100105 0.025885 0.0950602 0.0994565 0.015191 0.100992 0.0980172 
0.00333107 0.10299 0.0954711 -0.00813055 0.101152 0.0918064 -0.0179435 0.0964381 0.08728 
-0.0254788 0.0902114 0.0822711 -0.0307264 0.0837435 0.0771308 -0.0340834 0.0779209 0.0721011 
-0.0360967 0.0731701 0.0673091 -0.0372651 0.069524 0.0628028 -0.0379295 0.0667526 0.0585918 
-0.0382432 0.0645086 0.0546813 -0.0382029 0.0624615 0.0510879 -0.0377221 0.0603867 0.0478466 
-0.0367137 0.0581901 0.0450056 -0.035151 0.0558733 0.0426168 -0.0330892 0.0534762 0.0407233 
-0.0306519 0.051029 0.0393507 -0.0279992 0.0485336 0.0385032 -0.0252954 0.0459679 0.038161 
-0.0226876 0.0433005 0.0382848 -0.0202936 0.0405077 0.0388224 -0.0182028 0.0375841 0.0397189 
-0.0164818 0.0345476 0.0409255 -0.0151851 0.0314369 0.0423999 -0.0143647 0.0283078 0.0440979 
-0.0140705 0.025225 0.0459576 -0.0143424 0.022258 0.0478835 -0.0151958 0.0194764 0.0497439 
-0.0166056 0.0169454 0.0513852 -0.0184982 0.0147233 0.0526578 -0.0207548 0.0128554 0.0534453 
-0.0232261 0.0113678 0.053683 -0.025753 0.0102621 0.053365 -0.0281881 0.00951374 0.0525362 
-0.0304132 0.00907433 0.0512781 -0.0323476 0.0088805 0.0496879 -0.0332346 0.00886261 0.0478649 
0.0524375 0.0306587 0.110207 0.0498325 0.0315945 0.116162 0.0448978 0.0318499 0.119713 
0.040969 0.0316635 0.12081 0.0388424 0.0315571 0.119859 0.0389831 0.0323129 0.117597 
0.0413481 0.0348845 0.114891 0.04528 0.0402305 0.112545 0.0494944 0.0490555 0.11115 
0.0522124 0.061468 0.110971 0.05151 0.0766339 0.111838 0.045908 0.0926142 0.113106 
0.035051 0.106644 0.11376 0.0201082 0.115994 0.112767 0.0035063 0.1191 0.109529 
-0.0120007 0.116236 0.104156 -0.0243769 0.109197 0.0973461 -0.0328386 0.100319 0.0899913 